 variables ="n", "cdx-mrt", "cdy-mrt"
 zone T="drag_mrt"
         1         11.281270374     0.832667E-16
         2          5.383472053    -0.312250E-16
         3          5.809536202    -0.520417E-17
         4          6.112173556    -0.520417E-17
         5          7.396109530     0.520417E-17
         6          7.771584182    -0.520417E-17
         7          7.475589573     0.546438E-16
         8          7.449299100    -0.520417E-17
         9          6.898804718     0.910730E-17
        10          6.563144685     0.208167E-16
        11          6.144880798     0.598480E-16
        12          5.931359772    -0.780626E-17
        13          5.665797588     0.182146E-16
        14          5.391676639    -0.338271E-16
        15          5.074979438     0.385852E-05
        16          4.807409461     0.330160E-05
        17          4.555835496     0.103724E-03
        18          4.271584707    -0.167494E-04
        19          3.993056100     0.923253E-04
        20          3.747205741    -0.744621E-04
        21          3.559030457     0.376953E-03
        22          3.383385930     0.261873E-03
        23          3.226069932     0.936219E-03
        24          3.060055683     0.213161E-02
        25          2.938197567     0.373553E-02
        26          2.833178456     0.614188E-02
        27          2.769377474     0.939389E-02
        28          2.684511821     0.128448E-01
        29          2.629015051     0.158047E-01
        30          2.579154390     0.176271E-01
        31          2.564353530     0.178375E-01
        32          2.544107247     0.161808E-01
        33          2.542810905     0.128938E-01
        34          2.524726358     0.872795E-02
        35          2.531644237     0.449525E-02
        36          2.538881978     0.908191E-03
        37          2.563352373    -0.188062E-02
        38          2.570949508    -0.381250E-02
        39          2.592491667    -0.497289E-02
        40          2.603861959    -0.539296E-02
        41          2.629585404    -0.513922E-02
        42          2.638790494    -0.437557E-02
        43          2.648549828    -0.311986E-02
        44          2.633300702    -0.146784E-02
        45          2.622445940     0.427961E-03
        46          2.596183425     0.232610E-02
        47          2.576543673     0.415405E-02
        48          2.539966488     0.570843E-02
        49          2.513033347     0.684417E-02
        50          2.477749498     0.737717E-02
        51          2.459400295     0.673088E-02
        52          2.433854559     0.435983E-02
        53          2.420649327     0.376543E-03
        54          2.399352864    -0.498626E-02
        55          2.394619269    -0.115633E-01
        56          2.385516495    -0.185335E-01
        57          2.390616874    -0.242152E-01
        58          2.388571309    -0.273651E-01
        59          2.398808859    -0.271540E-01
        60          2.401664582    -0.227453E-01
        61          2.415954493    -0.140041E-01
        62          2.421726155    -0.196599E-02
        63          2.435086388     0.118940E-01
        64          2.437954592     0.259234E-01
        65          2.448261852     0.380235E-01
        66          2.449531128     0.464431E-01
        67          2.458070474     0.504005E-01
        68          2.457693394     0.496471E-01
        69          2.463711806     0.445894E-01
        70          2.461814159     0.364313E-01
        71          2.467552150     0.266438E-01
        72          2.466507633     0.164908E-01
        73          2.471714474     0.713514E-02
        74          2.469592066    -0.736695E-03
        75          2.473456680    -0.700690E-02
        76          2.470997870    -0.117731E-01
        77          2.474452544    -0.151752E-01
        78          2.471607700    -0.174944E-01
        79          2.473896670    -0.188912E-01
        80          2.470832994    -0.193153E-01
        81          2.474139222    -0.187588E-01
        82          2.473782624    -0.172953E-01
        83          2.480272999    -0.149754E-01
        84          2.484425150    -0.120131E-01
        85          2.496764946    -0.873112E-02
        86          2.508856055    -0.534993E-02
        87          2.530094288    -0.208165E-02
        88          2.551464246     0.861629E-03
        89          2.580639848     0.343036E-02
        90          2.608187186     0.561404E-02
        91          2.640233146     0.736050E-02
        92          2.666333393     0.868120E-02
        93          2.690897340     0.959364E-02
        94          2.703625577     0.100563E-01
        95          2.709216076     0.100575E-01
        96          2.699273771     0.961994E-02
        97          2.680109532     0.874928E-02
        98          2.645922706     0.749298E-02
        99          2.604929259     0.595515E-02
       100          2.553890806     0.426049E-02
       101          2.502215414     0.253348E-02
       102          2.447451809     0.931220E-03
       103          2.398196854    -0.409175E-03
       104          2.351257206    -0.139010E-02
       105          2.313453525    -0.195492E-02
       106          2.280344050    -0.207072E-02
       107          2.256976783    -0.176984E-02
       108          2.237933951    -0.109280E-02
       109          2.227138296    -0.951230E-04
       110          2.219230814     0.116407E-02
       111          2.217976271     0.261481E-02
       112          2.218523753     0.421758E-02
       113          2.224631012     0.591145E-02
       114          2.231903842     0.764629E-02
       115          2.243874321     0.935190E-02
       116          2.256353925     0.109612E-01
       117          2.272468979     0.123826E-01
       118          2.288002373     0.135465E-01
       119          2.305605436     0.143701E-01
       120          2.321252281     0.148128E-01
       121          2.337458311     0.148424E-01
       122          2.350635447     0.144790E-01
       123          2.363378760     0.137541E-01
       124          2.372633907     0.127491E-01
       125          2.381080551     0.115359E-01
       126          2.386190449     0.102197E-01
       127          2.390701921     0.887534E-02
       128          2.392423776     0.758953E-02
       129          2.393948380     0.640607E-02
       130          2.393283178     0.537873E-02
       131          2.392799796     0.451287E-02
       132          2.390632774     0.383220E-02
       133          2.388913420     0.332242E-02
       134          2.385853443     0.299556E-02
       135          2.383332208     0.283006E-02
       136          2.379697126     0.283808E-02
       137          2.376683336     0.299587E-02
       138          2.372790574     0.331261E-02
       139          2.369603662     0.375783E-02
       140          2.365756983     0.433240E-02
       141          2.362692157     0.499203E-02
       142          2.359169640     0.572551E-02
       143          2.356496074     0.647686E-02
       144          2.353509817     0.722718E-02
       145          2.351352576     0.791404E-02
       146          2.348950305     0.851898E-02
       147          2.347335215     0.898273E-02
       148          2.345520564     0.929638E-02
       149          2.344421958     0.941422E-02
       150          2.343113877     0.934692E-02
       151          2.342390331     0.907030E-02
       152          2.341379148     0.862281E-02
       153          2.340762037     0.800872E-02
       154          2.339683039     0.729565E-02
       155          2.338691841     0.651273E-02
       156          2.336962423     0.574770E-02
       157          2.334972278     0.503836E-02
       158          2.331971105     0.447204E-02
       159          2.328427053     0.407279E-02
       160          2.323721126     0.390377E-02
       161          2.318388380     0.395538E-02
       162          2.312017450     0.425475E-02
       163          2.305279568     0.475430E-02
       164          2.297974823     0.544884E-02
       165          2.290882752     0.626474E-02
       166          2.283958223     0.718063E-02
       167          2.278014450     0.811472E-02
       168          2.273044563     0.904771E-02
       169          2.269765537     0.990457E-02
       170          2.268065515     0.106780E-01
       171          2.268450383     0.113070E-01
       172          2.270627148     0.118007E-01
       173          2.274857500     0.121139E-01
       174          2.280650175     0.122736E-01
       175          2.288042386     0.122520E-01
       176          2.296397838     0.120942E-01
       177          2.305612335     0.117886E-01
       178          2.314993522     0.113966E-01
       179          2.324388239     0.109178E-01
       180          2.333128367     0.104208E-01
       181          2.341094447     0.990636E-02
       182          2.347726564     0.943919E-02
       183          2.353016907     0.901009E-02
       184          2.356566613     0.867096E-02
       185          2.358517394     0.839727E-02
       186          2.358652551     0.822615E-02
       187          2.357269199     0.811981E-02
       188          2.354316148     0.810592E-02
       189          2.350208084     0.813986E-02
       190          2.344997557     0.824661E-02
       191          2.339148904     0.838123E-02
       192          2.332752679     0.857054E-02
       193          2.326261604     0.877184E-02
       194          2.319744199     0.901480E-02
       195          2.313592769     0.925834E-02
       196          2.307818045     0.953303E-02
       197          2.302732169     0.979763E-02
       198          2.298279973     0.100819E-01
       199          2.294692467     0.103430E-01
       200          2.291848262     0.106090E-01
       201          2.289902923     0.108359E-01
       202          2.288680202     0.110514E-01
       203          2.288273899     0.112115E-01
       204          2.288464363     0.113460E-01
       205          2.289296045     0.114136E-01
       206          2.290519608     0.114480E-01
       207          2.292148494     0.114132E-01
       208          2.293925481     0.113481E-01
       209          2.295855776     0.112222E-01
       210          2.297694659     0.110799E-01
       211          2.299460508     0.108953E-01
       212          2.300942550     0.107158E-01
       213          2.302191303     0.105178E-01
       214          2.303042749     0.103490E-01
