  0.55000000000000004       8.33333333333333981E-002   30.000000000000000        3.0000000000000000               80          40          30          20         214
 variables =x,y,ux,uy,rho
 zone I=          80 J=          40 f= point
     1    1     0.0833333333    0.0000000000   -0.0000617082
     1    2     0.0833333333    0.0000000000   -0.0000708016
     1    3     0.0833333333    0.0000000000   -0.0000803949
     1    4     0.0833333333    0.0000000000   -0.0000904462
     1    5     0.0833333333    0.0000000000   -0.0001008982
     1    6     0.0833333333    0.0000000000   -0.0001116768
     1    7     0.0833333333    0.0000000000   -0.0001226902
     1    8     0.0833333333    0.0000000000   -0.0001338285
     1    9     0.0833333333    0.0000000000   -0.0001449642
     1   10     0.0833333333    0.0000000000   -0.0001559534
     1   11     0.0833333333    0.0000000000   -0.0001666379
     1   12     0.0833333333    0.0000000000   -0.0001768490
     1   13     0.0833333333    0.0000000000   -0.0001864111
     1   14     0.0833333333    0.0000000000   -0.0001951477
     1   15     0.0833333333    0.0000000000   -0.0002028869
     1   16     0.0833333333    0.0000000000   -0.0002094683
     1   17     0.0833333333    0.0000000000   -0.0002147491
     1   18     0.0833333333    0.0000000000   -0.0002186110
     1   19     0.0833333333    0.0000000000   -0.0002209650
     1   20     0.0833333333    0.0000000000   -0.0002217559
     1   21     0.0833333333    0.0000000000   -0.0002209650
     1   22     0.0833333333    0.0000000000   -0.0002186110
     1   23     0.0833333333    0.0000000000   -0.0002147491
     1   24     0.0833333333    0.0000000000   -0.0002094683
     1   25     0.0833333333    0.0000000000   -0.0002028869
     1   26     0.0833333333    0.0000000000   -0.0001951477
     1   27     0.0833333333    0.0000000000   -0.0001864111
     1   28     0.0833333333    0.0000000000   -0.0001768490
     1   29     0.0833333333    0.0000000000   -0.0001666379
     1   30     0.0833333333    0.0000000000   -0.0001559534
     1   31     0.0833333333    0.0000000000   -0.0001449642
     1   32     0.0833333333    0.0000000000   -0.0001338285
     1   33     0.0833333333    0.0000000000   -0.0001226902
     1   34     0.0833333333    0.0000000000   -0.0001116768
     1   35     0.0833333333    0.0000000000   -0.0001008982
     1   36     0.0833333333    0.0000000000   -0.0000904462
     1   37     0.0833333333    0.0000000000   -0.0000803949
     1   38     0.0833333333    0.0000000000   -0.0000708016
     1   39     0.0833333333    0.0000000000   -0.0000617082
     1   40     0.0833333333    0.0000000000   -0.0000531425
     2    1     0.0830913471   -0.0006086840   -0.0000598530
     2    2     0.0828328581    0.0000000000    0.0022878641
     2    3     0.0825653602   -0.0007707043    0.0029038588
     2    4     0.0821461111   -0.0003926086    0.0031859254
     2    5     0.0825349496   -0.0002396587    0.0033437546
     2    6     0.0822969758   -0.0003015910    0.0032670403
     2    7     0.0823574887   -0.0001903220    0.0034896737
     2    8     0.0822741068   -0.0001446011    0.0035441307
     2    9     0.0823425900   -0.0001414261    0.0035932241
     2   10     0.0822600765   -0.0001412256    0.0036312681
     2   11     0.0822744745   -0.0001063789    0.0037258845
     2   12     0.0822440327   -0.0000976724    0.0037603690
     2   13     0.0822507244   -0.0000931854    0.0038036622
     2   14     0.0822175433   -0.0000813467    0.0038447443
     2   15     0.0822177787   -0.0000619198    0.0038921658
     2   16     0.0822039940   -0.0000521032    0.0039173965
     2   17     0.0822010627   -0.0000410686    0.0039420545
     2   18     0.0821893343   -0.0000249572    0.0039597890
     2   19     0.0821900001   -0.0000073900    0.0039737765
     2   20     0.0821883213    0.0000054543    0.0039751716
     2   21     0.0821902175    0.0000198293    0.0039675860
     2   22     0.0821939208    0.0000357080    0.0039546476
     2   23     0.0821990434    0.0000518124    0.0039345088
     2   24     0.0822118062    0.0000634425    0.0039047089
     2   25     0.0822181821    0.0000754477    0.0038655163
     2   26     0.0822352065    0.0000860457    0.0038308152
     2   27     0.0822389815    0.0001013644    0.0037782830
     2   28     0.0822725120    0.0001084977    0.0037267047
     2   29     0.0822686793    0.0001138288    0.0036718910
     2   30     0.0823019925    0.0001212650    0.0036315693
     2   31     0.0822900149    0.0001504691    0.0035346106
     2   32     0.0823711786    0.0001471203    0.0034886845
     2   33     0.0823067974    0.0001501722    0.0034328585
     2   34     0.0823899642    0.0001923094    0.0033769036
     2   35     0.0823323321    0.0002960516    0.0031583177
     2   36     0.0825630818    0.0002334596    0.0032282657
     2   37     0.0821873853    0.0003813727    0.0030734378
     2   38     0.0825935806    0.0007450904    0.0028028903
     2   39     0.0828502034    0.0000000000    0.0022084329
     2   40     0.0831278914    0.0005992056   -0.0000507586
     3    1     0.0831010297   -0.0006476728   -0.0000573658
     3    2     0.0831669856    0.0000000000    0.0031289728
     3    3     0.0823743519   -0.0013646201    0.0032549424
     3    4     0.0817271976   -0.0012252877    0.0029445148
     3    5     0.0824270715   -0.0008145873    0.0033823044
     3    6     0.0821629873   -0.0005870499    0.0034044837
     3    7     0.0823092621   -0.0005224064    0.0034926064
     3    8     0.0822072573   -0.0004629753    0.0034980243
     3    9     0.0823258820   -0.0003875438    0.0036343705
     3   10     0.0822121439   -0.0003446896    0.0036636124
     3   11     0.0822519403   -0.0003195203    0.0037303500
     3   12     0.0822120070   -0.0002862793    0.0037646793
     3   13     0.0822271868   -0.0002494909    0.0038270469
     3   14     0.0821789611   -0.0002174453    0.0038676458
     3   15     0.0821858566   -0.0001840902    0.0039110186
     3   16     0.0821704599   -0.0001463285    0.0039296155
     3   17     0.0821666193   -0.0001076640    0.0039623206
     3   18     0.0821460378   -0.0000669655    0.0039886657
     3   19     0.0821517341   -0.0000243560    0.0039944687
     3   20     0.0821526564    0.0000172701    0.0039869895
     3   21     0.0821505462    0.0000587098    0.0039918777
     3   22     0.0821524276    0.0001012905    0.0039839873
     3   23     0.0821639026    0.0001415389    0.0039482867
     3   24     0.0821812461    0.0001769761    0.0039189618
     3   25     0.0821816239    0.0002125887    0.0038928160
     3   26     0.0822056444    0.0002461613    0.0038506616
     3   27     0.0822098956    0.0002734257    0.0037861485
     3   28     0.0822516724    0.0002982583    0.0037519365
     3   29     0.0822357019    0.0003290724    0.0036897658
     3   30     0.0822850139    0.0003544489    0.0036322401
     3   31     0.0822502352    0.0003723561    0.0035567705
     3   32     0.0823560745    0.0004078817    0.0035359638
     3   33     0.0822428234    0.0004745734    0.0033967770
     3   34     0.0823488396    0.0005242820    0.0033742254
     3   35     0.0822071298    0.0005814797    0.0032879415
     3   36     0.0824596926    0.0007974729    0.0032719582
     3   37     0.0817848031    0.0011895441    0.0028417398
     3   38     0.0824137664    0.0013181380    0.0031359279
     3   39     0.0831733980    0.0000000000    0.0030188279
     3   40     0.0831397494    0.0006354730   -0.0000477340
     4    1     0.0831136413   -0.0006890658   -0.0000541384
     4    2     0.0835698782    0.0000000000    0.0034365121
     4    3     0.0823114013   -0.0014424289    0.0032465453
     4    4     0.0815819067   -0.0014956893    0.0031718662
     4    5     0.0819606552   -0.0011605718    0.0033913384
     4    6     0.0820886919   -0.0009138741    0.0034640953
     4    7     0.0822055769   -0.0008127171    0.0034909259
     4    8     0.0821437302   -0.0007371796    0.0035418484
     4    9     0.0822204842   -0.0006314072    0.0036569723
     4   10     0.0821860912   -0.0005740505    0.0036958022
     4   11     0.0821986968   -0.0005367201    0.0037350802
     4   12     0.0821594299   -0.0004826137    0.0037986697
     4   13     0.0821627820   -0.0004187552    0.0038632151
     4   14     0.0821344081   -0.0003692925    0.0038915550
     4   15     0.0821258169   -0.0003178716    0.0039280666
     4   16     0.0821044625   -0.0002514215    0.0039720679
     4   17     0.0820982784   -0.0001804521    0.0040001011
     4   18     0.0820843528   -0.0001158246    0.0040093794
     4   19     0.0820822428   -0.0000480175    0.0040233861
     4   20     0.0820799108    0.0000281731    0.0040324231
     4   21     0.0820833449    0.0001025251    0.0040223478
     4   22     0.0820887630    0.0001687243    0.0040031124
     4   23     0.0820997414    0.0002353138    0.0039851239
     4   24     0.0821170500    0.0003012148    0.0039589050
     4   25     0.0821282468    0.0003614135    0.0039149187
     4   26     0.0821523400    0.0004129668    0.0038689195
     4   27     0.0821664484    0.0004605009    0.0038259721
     4   28     0.0821979639    0.0005031430    0.0037797659
     4   29     0.0821970584    0.0005507069    0.0037080759
     4   30     0.0822378109    0.0005903913    0.0036466957
     4   31     0.0822280136    0.0006215302    0.0035987308
     4   32     0.0822643619    0.0006673961    0.0035468482
     4   33     0.0821912695    0.0007563060    0.0034329658
     4   34     0.0822521321    0.0008197400    0.0033836497
     4   35     0.0821399310    0.0009111664    0.0033488969
     4   36     0.0820164210    0.0011399839    0.0032712702
     4   37     0.0816515661    0.0014547547    0.0030606304
     4   38     0.0823565029    0.0013961649    0.0031323828
     4   39     0.0835646433    0.0000000000    0.0033128418
     4   40     0.0831545423    0.0006737054   -0.0000439690
     5    1     0.0831296707   -0.0007328769   -0.0000500478
     5    2     0.0837130577    0.0000000000    0.0033625349
     5    3     0.0825670713   -0.0014078644    0.0032945064
     5    4     0.0815770625   -0.0015906010    0.0034541391
     5    5     0.0816172151   -0.0014371799    0.0034095335
     5    6     0.0819205520   -0.0012498322    0.0034197011
     5    7     0.0820786623   -0.0010504535    0.0035754809
     5    8     0.0820657214   -0.0009661276    0.0036271210
     5    9     0.0821148449   -0.0008968676    0.0036532306
     5   10     0.0821206784   -0.0008196943    0.0037157697
     5   11     0.0821252712   -0.0007371421    0.0037946000
     5   12     0.0820866728   -0.0006802135    0.0038424577
     5   13     0.0820789313   -0.0006139296    0.0038898769
     5   14     0.0820578773   -0.0005345859    0.0039316338
     5   15     0.0820383959   -0.0004501804    0.0039767013
     5   16     0.0820081771   -0.0003657065    0.0040199847
     5   17     0.0819984288   -0.0002711506    0.0040439537
     5   18     0.0819882392   -0.0001703314    0.0040516032
     5   19     0.0819791182   -0.0000678341    0.0040721066
     5   20     0.0819716279    0.0000360699    0.0040854395
     5   21     0.0819819245    0.0001420377    0.0040655065
     5   22     0.0819932971    0.0002431768    0.0040430185
     5   23     0.0820033212    0.0003403777    0.0040361927
     5   24     0.0820226918    0.0004323273    0.0040062042
     5   25     0.0820479485    0.0005180113    0.0039491367
     5   26     0.0820767590    0.0005908484    0.0039113428
     5   27     0.0820960060    0.0006614460    0.0038743058
     5   28     0.0821275898    0.0007239414    0.0038056377
     5   29     0.0821416760    0.0007769245    0.0037393647
     5   30     0.0821764241    0.0008197691    0.0037036081
     5   31     0.0821727248    0.0008845670    0.0036252532
     5   32     0.0821749313    0.0009428288    0.0035403793
     5   33     0.0821278376    0.0009984405    0.0035083504
     5   34     0.0821376681    0.0010685404    0.0034676338
     5   35     0.0819867629    0.0012467284    0.0033094320
     5   36     0.0816951156    0.0014133641    0.0032845090
     5   37     0.0816558143    0.0015524394    0.0033298090
     5   38     0.0826101978    0.0013665138    0.0031806312
     5   39     0.0837066017    0.0000000000    0.0032398880
     5   40     0.0831727147    0.0007138608   -0.0000393516
     6    1     0.0831496708   -0.0007790708   -0.0000449546
     6    2     0.0838039699    0.0000000000    0.0033976715
     6    3     0.0829510518   -0.0014670055    0.0034915994
     6    4     0.0815337272   -0.0016553294    0.0034359235
     6    5     0.0814802190   -0.0015781771    0.0034787017
     6    6     0.0817163504   -0.0014515161    0.0035053842
     6    7     0.0819270031   -0.0012827279    0.0036288500
     6    8     0.0819767661   -0.0011869112    0.0036481418
     6    9     0.0820343335   -0.0011093394    0.0037022526
     6   10     0.0820160142   -0.0010349642    0.0037688226
     6   11     0.0820312060   -0.0009474094    0.0038539614
     6   12     0.0820036005   -0.0008744143    0.0038818731
     6   13     0.0819842167   -0.0007948067    0.0039306520
     6   14     0.0819410999   -0.0006988460    0.0039990701
     6   15     0.0819195385   -0.0005888230    0.0040489719
     6   16     0.0818908880   -0.0004788769    0.0040612132
     6   17     0.0818688935   -0.0003608428    0.0040960200
     6   18     0.0818438815   -0.0002267662    0.0041362428
     6   19     0.0818396435   -0.0000869098    0.0041387722
     6   20     0.0818371621    0.0000462330    0.0041245763
     6   21     0.0818410129    0.0001814354    0.0041330611
     6   22     0.0818525968    0.0003201587    0.0041274785
     6   23     0.0818781455    0.0004503911    0.0040838858
     6   24     0.0819059879    0.0005648456    0.0040466859
     6   25     0.0819326528    0.0006750541    0.0040235305
     6   26     0.0819734878    0.0007746299    0.0039775757
     6   27     0.0820062359    0.0008619325    0.0039036591
     6   28     0.0820470954    0.0009342158    0.0038532520
     6   29     0.0820670446    0.0010002588    0.0038037404
     6   30     0.0821049719    0.0010537883    0.0037428096
     6   31     0.0820931241    0.0011165597    0.0036532021
     6   32     0.0821074667    0.0011706623    0.0036045546
     6   33     0.0820517992    0.0012312626    0.0035406084
     6   34     0.0820095179    0.0013046375    0.0034994578
     6   35     0.0818050955    0.0014503462    0.0033838353
     6   36     0.0815720384    0.0015591151    0.0033656001
     6   37     0.0816247978    0.0016189909    0.0033121545
     6   38     0.0829933434    0.0014212601    0.0033581639
     6   39     0.0837972740    0.0000000000    0.0032728875
     6   40     0.0831947617    0.0007558452   -0.0000337571
     7    1     0.0831742625   -0.0008275470   -0.0000387025
     7    2     0.0839871485    0.0000000000    0.0035435675
     7    3     0.0832415523   -0.0014880985    0.0035969876
     7    4     0.0815525733   -0.0016921831    0.0034088747
     7    5     0.0814086328   -0.0016895930    0.0035814495
     7    6     0.0815665794   -0.0016026955    0.0036132476
     7    7     0.0817838515   -0.0014908789    0.0036419697
     7    8     0.0818697437   -0.0013968913    0.0036775256
     7    9     0.0819427324   -0.0012983558    0.0037967454
     7   10     0.0819188282   -0.0012338241    0.0038306147
     7   11     0.0819271574   -0.0011619716    0.0038857752
     7   12     0.0818956847   -0.0010696017    0.0039463073
     7   13     0.0818657512   -0.0009641473    0.0040160456
     7   14     0.0818081421   -0.0008597254    0.0040627153
     7   15     0.0817749048   -0.0007388657    0.0041106503
     7   16     0.0817370076   -0.0005958377    0.0041434208
     7   17     0.0817039426   -0.0004413799    0.0041810325
     7   18     0.0816684047   -0.0002830867    0.0042110005
     7   19     0.0816619646   -0.0001157677    0.0042177091
     7   20     0.0816602443    0.0000594793    0.0042106871
     7   21     0.0816648026    0.0002320634    0.0042148259
     7   22     0.0816789759    0.0003958587    0.0042039453
     7   23     0.0817156216    0.0005564289    0.0041616701
     7   24     0.0817565471    0.0007061176    0.0041247716
     7   25     0.0817946388    0.0008399754    0.0040950472
     7   26     0.0818470058    0.0009558159    0.0040409622
     7   27     0.0818950141    0.0010604021    0.0039675690
     7   28     0.0819518821    0.0011450464    0.0039241322
     7   29     0.0819819041    0.0012205382    0.0038593984
     7   30     0.0820234188    0.0012823865    0.0037801395
     7   31     0.0820172821    0.0013354909    0.0037116066
     7   32     0.0820386345    0.0013786367    0.0036842757
     7   33     0.0819682438    0.0014476951    0.0035668962
     7   34     0.0818883653    0.0015150270    0.0035171091
     7   35     0.0816750646    0.0016077331    0.0034842144
     7   36     0.0815192571    0.0016740267    0.0034580347
     7   37     0.0816597932    0.0016553725    0.0032859948
     7   38     0.0832850766    0.0014411360    0.0034597786
     7   39     0.0839766256    0.0000000000    0.0034095503
     7   40     0.0832212297    0.0007994985   -0.0000270483
     8    1     0.0832041362   -0.0008781205   -0.0000311176
     8    2     0.0841725510    0.0000000000    0.0036121982
     8    3     0.0834570957   -0.0014703921    0.0035780077
     8    4     0.0817084912   -0.0017145271    0.0035348689
     8    5     0.0813470255   -0.0017854157    0.0036506344
     8    6     0.0814557986   -0.0017426632    0.0036297336
     8    7     0.0816775504   -0.0016520262    0.0037011904
     8    8     0.0817686861   -0.0015850562    0.0037579612
     8    9     0.0818333303   -0.0015083266    0.0038527447
     8   10     0.0818334300   -0.0014396644    0.0038815348
     8   11     0.0818249268   -0.0013610135    0.0039427588
     8   12     0.0817674983   -0.0012713908    0.0040280267
     8   13     0.0817219039   -0.0011584468    0.0041061754
     8   14     0.0816665620   -0.0010327842    0.0041259314
     8   15     0.0816100686   -0.0008911143    0.0041779738
     8   16     0.0815411586   -0.0007239803    0.0042571944
     8   17     0.0815009956   -0.0005362625    0.0042868324
     8   18     0.0814700868   -0.0003439354    0.0042758470
     8   19     0.0814467867   -0.0001441168    0.0043110541
     8   20     0.0814311891    0.0000706334    0.0043426741
     8   21     0.0814532300    0.0002846865    0.0043051740
     8   22     0.0814809861    0.0004818521    0.0042668662
     8   23     0.0815142828    0.0006731160    0.0042721100
     8   24     0.0815673594    0.0008557055    0.0042395278
     8   25     0.0816382478    0.0010176393    0.0041521673
     8   26     0.0817061998    0.0011520088    0.0041027214
     8   27     0.0817638998    0.0012720443    0.0040718798
     8   28     0.0818399598    0.0013689499    0.0039958754
     8   29     0.0818941993    0.0014482499    0.0038948397
     8   30     0.0819435009    0.0015078001    0.0038500260
     8   31     0.0819496866    0.0015596940    0.0037866373
     8   32     0.0819623023    0.0015955412    0.0037130005
     8   33     0.0818976550    0.0016440442    0.0036224668
     8   34     0.0818011839    0.0016883484    0.0035933899
     8   35     0.0815855854    0.0017515452    0.0035074885
     8   36     0.0814827722    0.0017662284    0.0035032555
     8   37     0.0818283375    0.0016800348    0.0034021590
     8   38     0.0835028304    0.0014301838    0.0034530379
     8   39     0.0841606869    0.0000000000    0.0034717522
     8   40     0.0832527146    0.0008445773   -0.0000190750
     9    1     0.0832400503   -0.0009304979   -0.0000220090
     9    2     0.0843037142    0.0000000000    0.0036201826
     9    3     0.0837191834   -0.0014796039    0.0036113231
     9    4     0.0819004858   -0.0017450093    0.0036383443
     9    5     0.0813447915   -0.0018527697    0.0036734360
     9    6     0.0813902055   -0.0018771916    0.0036538103
     9    7     0.0815897442   -0.0018198500    0.0037919333
     9    8     0.0816908636   -0.0017729884    0.0038234911
     9    9     0.0817464749   -0.0017239350    0.0038702075
     9   10     0.0817416723   -0.0016644663    0.0039438322
     9   11     0.0817117444   -0.0015774728    0.0040453961
     9   12     0.0816445368   -0.0014890612    0.0040908736
     9   13     0.0815763560   -0.0013801875    0.0041536078
     9   14     0.0814941469   -0.0012341857    0.0042279220
     9   15     0.0814117550   -0.0010563452    0.0042942672
     9   16     0.0813286030   -0.0008662202    0.0043335759
     9   17     0.0812698840   -0.0006581496    0.0043748195
     9   18     0.0812199810   -0.0004186985    0.0044080908
     9   19     0.0811906557   -0.0001654802    0.0044264146
     9   20     0.0811749781    0.0000810393    0.0044285995
     9   21     0.0811970545    0.0003302772    0.0044202483
     9   22     0.0812328362    0.0005827759    0.0043969689
     9   23     0.0812883073    0.0008163344    0.0043622487
     9   24     0.0813580821    0.0010187578    0.0043190494
     9   25     0.0814452632    0.0012096017    0.0042618383
     9   26     0.0815410692    0.0013775560    0.0042002725
     9   27     0.0816324228    0.0015116541    0.0041288208
     9   28     0.0817248862    0.0016111488    0.0040564715
     9   29     0.0817964430    0.0016952146    0.0039792673
     9   30     0.0818679446    0.0017527717    0.0039181546
     9   31     0.0818966928    0.0017964997    0.0038218112
     9   32     0.0819021344    0.0018186610    0.0037523299
     9   33     0.0818422558    0.0018435159    0.0036931774
     9   34     0.0817446631    0.0018615012    0.0036539778
     9   35     0.0815494923    0.0018857448    0.0035239858
     9   36     0.0814983844    0.0018374567    0.0035406501
     9   37     0.0820297215    0.0017137266    0.0034983140
     9   38     0.0837712712    0.0014373120    0.0034709110
     9   39     0.0842931871    0.0000000000    0.0034797885
     9   40     0.0832898570    0.0008907351   -0.0000096761
    10    1     0.0832828258   -0.0009842503   -0.0000111699
    10    2     0.0844230172    0.0000000000    0.0036557500
    10    3     0.0840263402   -0.0015095703    0.0037000613
    10    4     0.0820688726   -0.0017788735    0.0036317637
    10    5     0.0814166244   -0.0019175265    0.0037026068
    10    6     0.0813871532   -0.0019951758    0.0037293640
    10    7     0.0815260787   -0.0019946591    0.0038271544
    10    8     0.0816355692   -0.0019744211    0.0038440611
    10    9     0.0816904305   -0.0019336881    0.0039210738
    10   10     0.0816589403   -0.0018971383    0.0040067187
    10   11     0.0816013329   -0.0018332962    0.0041081969
    10   12     0.0815276132   -0.0017396970    0.0041438088
    10   13     0.0814280053   -0.0016132235    0.0042142553
    10   14     0.0812981834   -0.0014566980    0.0043281136
    10   15     0.0811880379   -0.0012634950    0.0044010811
    10   16     0.0810974298   -0.0010386638    0.0044059843
    10   17     0.0810068731   -0.0007876252    0.0044677421
    10   18     0.0809185980   -0.0005055966    0.0045521447
    10   19     0.0808918589   -0.0002055689    0.0045456730
    10   20     0.0808876620    0.0000940312    0.0045081758
    10   21     0.0808974939    0.0003933006    0.0045419112
    10   22     0.0809342893    0.0006905377    0.0045438434
    10   23     0.0810303626    0.0009708374    0.0044504233
    10   24     0.0811287041    0.0012172700    0.0043876308
    10   25     0.0812273727    0.0014375129    0.0043777527
    10   26     0.0813553214    0.0016221614    0.0043014150
    10   27     0.0814937751    0.0017739940    0.0041708776
    10   28     0.0816141643    0.0018880513    0.0041128567
    10   29     0.0817070877    0.0019713504    0.0040616152
    10   30     0.0818026866    0.0020147499    0.0039591784
    10   31     0.0818574099    0.0020420886    0.0038472295
    10   32     0.0818750481    0.0020485201    0.0038116475
    10   33     0.0818161670    0.0020496486    0.0037267706
    10   34     0.0817159872    0.0020293343    0.0036674069
    10   35     0.0815715610    0.0020063601    0.0035832086
    10   36     0.0815878351    0.0019101043    0.0035806438
    10   37     0.0822151901    0.0017445798    0.0034928292
    10   38     0.0840840433    0.0014587136    0.0035412958
    10   39     0.0844111077    0.0000000000    0.0035112121
    10   40     0.0833333333    0.0009375000    0.0000013184
    11    1     0.0833333333   -0.0010387812    0.0000016186
    11    2     0.0845617711    0.0000000000    0.0037099841
    11    3     0.0843127465   -0.0015095430    0.0037288582
    11    4     0.0822777920   -0.0017995112    0.0036241212
    11    5     0.0815377892   -0.0019970322    0.0037556532
    11    6     0.0814279457   -0.0021094230    0.0037697615
    11    7     0.0815228503   -0.0021501007    0.0038090868
    11    8     0.0816147436   -0.0021780236    0.0038625440
    11    9     0.0816449207   -0.0021666211    0.0039985557
    11   10     0.0816087608   -0.0021467453    0.0040357216
    11   11     0.0815259536   -0.0021030389    0.0040980420
    11   12     0.0814026010   -0.0020174809    0.0042143096
    11   13     0.0812567935   -0.0018775168    0.0043291919
    11   14     0.0811103253   -0.0017078779    0.0043685998
    11   15     0.0809629068   -0.0015063007    0.0044391026
    11   16     0.0808138958   -0.0012419467    0.0045446455
    11   17     0.0806940577   -0.0009290196    0.0046011920
    11   18     0.0806012082   -0.0006057960    0.0046074185
    11   19     0.0805514285   -0.0002677135    0.0046491828
    11   20     0.0805262188    0.0001068088    0.0046805572
    11   21     0.0805595608    0.0004793729    0.0046440012
    11   22     0.0806184306    0.0008138057    0.0046005645
    11   23     0.0807194753    0.0011376572    0.0045846876
    11   24     0.0808496944    0.0014464232    0.0045235534
    11   25     0.0810103338    0.0017040139    0.0044152731
    11   26     0.0811729078    0.0018990034    0.0043432592
    11   27     0.0813314286    0.0020669515    0.0042806825
    11   28     0.0815005442    0.0021925889    0.0041779783
    11   29     0.0816494066    0.0022685716    0.0040532685
    11   30     0.0817650137    0.0022982441    0.0039848949
    11   31     0.0818338940    0.0023067339    0.0039116548
    11   32     0.0818775748    0.0022837863    0.0038307147
    11   33     0.0818408180    0.0022508900    0.0037113316
    11   34     0.0817367478    0.0021912354    0.0036872458
    11   35     0.0816325273    0.0021227321    0.0036281401
    11   36     0.0817373483    0.0019805355    0.0035939843
    11   37     0.0824434507    0.0017627736    0.0034815370
    11   38     0.0843711918    0.0014649214    0.0035882541
    11   39     0.0845486012    0.0000000000    0.0035546654
    11   40     0.0833838409    0.0009842503    0.0000140838
    12    1     0.0833924734   -0.0010932921    0.0000165832
    12    2     0.0847021663    0.0000000000    0.0037203529
    12    3     0.0845825424   -0.0015085473    0.0037090948
    12    4     0.0825577861   -0.0018291066    0.0036632716
    12    5     0.0817069353   -0.0020763516    0.0037601012
    12    6     0.0815104560   -0.0022410496    0.0037361422
    12    7     0.0815735681   -0.0023205997    0.0038217820
    12    8     0.0816455431   -0.0023922609    0.0038835980
    12    9     0.0816387229   -0.0024335128    0.0039858882
    12   10     0.0815857350   -0.0024383638    0.0040359840
    12   11     0.0814652290   -0.0023938375    0.0041310677
    12   12     0.0812924299   -0.0023227097    0.0042559546
    12   13     0.0810964860   -0.0022053706    0.0043681063
    12   14     0.0809142669   -0.0020185463    0.0044133572
    12   15     0.0807101518   -0.0017681633    0.0045085496
    12   16     0.0804976722   -0.0014680055    0.0046428939
    12   17     0.0803464554   -0.0011249220    0.0046966031
    12   18     0.0802401410   -0.0007357795    0.0046889164
    12   19     0.0801579589   -0.0003166329    0.0047543914
    12   20     0.0801076016    0.0001190494    0.0048105471
    12   21     0.0801683153    0.0005556873    0.0047484052
    12   22     0.0802584118    0.0009734872    0.0046789958
    12   23     0.0803746423    0.0013597968    0.0046825746
    12   24     0.0805389429    0.0016980111    0.0046248769
    12   25     0.0807640775    0.0019965602    0.0044750643
    12   26     0.0809808033    0.0022406093    0.0043821403
    12   27     0.0811835336    0.0024211826    0.0043299539
    12   28     0.0814018055    0.0025280781    0.0042123872
    12   29     0.0815998231    0.0025958121    0.0040626065
    12   30     0.0817555069    0.0026227622    0.0039940591
    12   31     0.0818600190    0.0026051384    0.0039103108
    12   32     0.0819186012    0.0025386405    0.0038128622
    12   33     0.0819048970    0.0024670064    0.0037141797
    12   34     0.0818193009    0.0023697289    0.0036885254
    12   35     0.0817490795    0.0022480179    0.0035942646
    12   36     0.0819286839    0.0020509489    0.0035933986
    12   37     0.0827313396    0.0017945941    0.0035116093
    12   38     0.0846466321    0.0014681984    0.0035674088
    12   39     0.0846914105    0.0000000000    0.0035623287
    12   40     0.0834420754    0.0010301883    0.0000287952